 -5.6482633e-05   1.8580802e-04
 -6.1066385e-05   1.5545390e-04
 -3.8998327e-04   1.3998186e-04
 -2.9280465e-04   2.0187568e-04
 -9.2456816e-05   2.3863473e-04
 -8.1065737e-05   2.8427772e-04
 -6.6154516e-06   1.4732366e-04
 -4.4345588e-04   1.8786549e-04
  3.5850459e-05   1.0039147e-04
  4.7914378e-04   1.2987462e-04
 -5.9499108e-04   2.8759305e-04
 -2.9488644e-04   1.3084352e-04
  2.4011677e-04   1.2416826e-04
  1.9741174e-05   2.4175031e-04
  2.6506346e-04   2.9670543e-04
  3.2968729e-04   1.9246190e-04
 -4.7760567e-04   1.3063459e-04
 -3.9583357e-04   2.0458517e-04
 -1.4307289e-04   1.6268398e-04
 -1.6777232e-04   8.1213657e-05
 -7.2428602e-04   2.4384388e-04
 -4.0195341e-04   3.4377308e-04
  1.1720277e-04   3.0916810e-04
  5.6377903e-04   3.1705401e-04
  3.2339699e-04   2.8305248e-04
 -5.2309901e-05   2.0591859e-04
  8.4171083e-04   1.8370716e-04
 -6.3158729e-04   2.4266832e-04
 -3.1487326e-04   2.3502744e-04
  3.2851519e-04   1.6837308e-04
  2.4089560e-02   1.1036797e-04
 -2.6557505e-05   3.3629601e-04
 -4.2200380e-05   1.0672797e-04
  8.4899861e-04   4.0905204e-04
 -1.3630478e-05   1.1612176e-04
  7.9723838e-04   1.0628507e-04
 -1.6038098e-04   3.8520031e-04
 -5.4831052e-04   3.0958559e-04
  3.4083638e-05   1.7248790e-04
  2.4629623e-04   1.4795158e-04
 -3.3308603e-05   1.8054276e-04
  2.2862993e-04   2.5613341e-04
 -1.1276982e-07   2.2148571e-04
  1.9518376e-04   2.0509327e-04
  2.5112764e-04   1.6279402e-04
 -4.3224663e-04   2.7376314e-04
 -1.0167995e-04   1.8318598e-04
 -5.3315796e-04   2.5235946e-04
  1.2110214e-04   1.5829358e-04
  3.1332584e-04   7.3304407e-05
  9.2869166e-05   3.1126881e-04
  5.0993601e-04   1.5544401e-04
 -2.1552117e-04   1.3310739e-04
 -2.4754895e-04   2.0933725e-04
  4.1579630e-04   7.8299592e-05
  3.8908311e-06   1.9507502e-04
  1.9334935e-04   1.8356125e-04
 -1.8845371e-04   1.2226947e-04
  1.2394428e-04   3.3319948e-04
 -4.1881955e-04   2.0082569e-04
 -9.3520741e-04   1.1044565e-04
 -8.4840134e-04   3.3821916e-04
 -1.0685228e-05   1.6247327e-04
 -1.4889757e-03   1.6325949e-04
 -9.5501055e-05   2.7972672e-04
  8.0399367e-04   2.6715675e-04
 -1.2332630e-04   1.6271461e-04
  1.9005880e-04   1.6276208e-04
  5.2752299e-04   1.0853848e-04
  1.5646897e-04   3.6776435e-04
  6.5583584e-04   9.4593721e-05
 -3.1277581e-04   1.7375175e-04
  3.3773552e-04   1.7459509e-04
 -2.9895356e-04   1.6711238e-04
  3.5758520e-05   3.6024436e-04
 -1.3723207e-03   1.7467426e-04
 -2.2381486e-04   3.3811203e-04
 -3.8566141e-04   1.5455614e-04
 -7.3772215e-04   5.4044515e-04
  4.7554073e-04   9.7366530e-05
  1.8923564e-03   2.0625092e-04
 -1.6857263e-04   4.0564049e-04
  6.5346772e-04   2.5565500e-04
  5.0116994e-04   1.4462911e-04
  3.1958290e-04   1.1703192e-04
 -3.4531223e-04   3.3370082e-04
 -3.9703093e-04   1.4584979e-04
  1.3991838e-04   2.1196650e-04
 -8.0894359e-04   2.1023396e-04
  1.3690395e-05   1.9105163e-04
  3.0105389e-04   2.4323432e-04
 -2.1565803e-04   2.1632652e-04
 -4.8542637e-04   2.3219368e-04
  4.5066420e-04   2.3692602e-04
 -5.4531870e-04   4.0723616e-04
 -5.7565421e-04   3.3309785e-04
  8.3142817e-07   1.0058519e-04
  2.3204290e-04   2.7001163e-04
 -2.0299169e-04   1.9244901e-04
  9.4570663e-05   1.6728864e-04
  2.6192356e-04   1.6388377e-04
  4.7000631e-04   1.9736499e-04
 -6.2724936e-04   2.5531210e-04
 -4.2348288e-04   1.2648714e-04
 -4.3326669e-05   2.0169595e-04
 -4.6195780e-04   2.2824864e-04
  1.2921226e-04   1.2297087e-04
 -2.6322025e-04   3.6012809e-04
  8.0694452e-05   1.7753996e-04
 -9.2422742e-05   1.1531781e-04
 -3.0023006e-05   1.2999198e-04
 -9.1377035e-05   2.0227909e-04
 -2.8017594e-04   1.2313222e-04
  1.6564384e-04   2.9191838e-04
 -7.9973244e-05   1.9740751e-04
  8.9908559e-07   2.1096143e-04
 -1.0911221e-04   1.8440909e-04
 -5.9575529e-04   1.9549213e-04
  2.0251505e-04   1.4932461e-04
 -2.0753140e-04   2.1401509e-04
  7.4571377e-04   2.2650982e-04
 -2.1972507e-04   2.7614832e-04
 -3.1371607e-04   3.2051207e-04
 -2.3776976e-05   1.8646117e-04
 -1.0672573e-04   1.6221679e-04
 -1.4050250e-04   2.7926936e-04
 -3.3062405e-04   1.7519902e-04
 -6.1201927e-04   2.6903252e-04
 -9.0011512e-05   2.7021157e-04
 -1.4775648e-04   3.0216959e-04
 -5.7204824e-04   1.2621045e-04
  4.2524972e-04   2.8381703e-04
 -3.3851768e-04   1.5237690e-04
  3.6239161e-04   1.4624149e-04
 -7.1115232e-05   1.0222403e-04
 -5.0672179e-04   3.0359451e-04
 -3.0636681e-06   1.9865262e-04
  2.2929112e-04   9.6453878e-05
 -3.1579033e-04   2.5240958e-04
 -1.5758349e-04   2.5145611e-04
 -1.3854690e-01   7.4817351e-04
  3.1683740e-04   1.2448974e-04
  2.0871231e-04   1.0536612e-04
 -6.2492845e-04   2.3409739e-04
  6.1014194e-05   1.5862305e-04
  6.8315072e-05   3.1150677e-04
  1.8345429e-05   3.0589441e-04
 -4.9197752e-05   1.7667998e-04
 -3.3509632e-04   2.7699035e-04
 -6.3892372e-04   2.4927760e-04
  5.6680990e-04   2.1924307e-04
  3.9639900e-04   1.3012032e-04
  4.7465149e-04   2.8666749e-04
 -1.2058416e-04   1.5560769e-04
  2.8607436e-04   7.7974742e-05
 -6.7846813e-05   2.7784909e-04
 -1.8819246e-05   2.3020688e-04
  8.8936482e-05   2.4624859e-04
 -4.7873840e-04   1.1317911e-04
 -9.0336813e-05   2.0032372e-04
 -2.0558736e-04   1.3929085e-04
  1.1031740e-04   1.4280097e-04
 -8.7256898e-04   2.2305376e-04
 -1.9615862e-04   3.2134383e-04
  1.0457557e-04   7.2124494e-05
 -3.6150584e-04   2.8345743e-04
 -3.8839040e-05   1.5496953e-04
  9.0281123e-05   1.6050573e-04
 -5.4407772e-04   1.5500584e-04
 -5.3530192e-04   2.8265300e-04
  1.9042112e-05   2.3590653e-04
 -1.0076340e-04   3.4802494e-04
 -1.0202385e-03   6.0646784e-05
 -4.3037038e-05   2.4531488e-04
 -1.4671183e-04   4.0478262e-04
 -3.1850941e-04   2.4354504e-04
  1.5662551e-04   2.0075093e-04
 -1.5774999e-04   2.6512594e-04
 -2.8001767e-04   1.5899073e-04
  8.8520162e-02   3.3627602e-04
  9.4841911e-05   2.0480288e-04
  1.8964621e-04   4.0443873e-04
  4.6308425e-05   6.5638262e-05
 -4.4102065e-04   2.3272278e-04
  5.0790026e-04   1.0628960e-04
  4.1060062e-04   1.8068468e-04
  2.2168861e-04   1.5917912e-04
  1.3947388e-05   2.9283835e-04
  2.6097358e-04   1.4142175e-04
 -1.7347955e-04   2.1668787e-04
  4.4517935e-04   3.6396831e-04
  1.7850255e-04   7.5423020e-05
  4.4151436e-04   3.4772066e-04
  1.4174219e-03   2.8399550e-04
  2.4167947e-04   2.0446985e-04
 -1.2901529e-04   4.0472415e-04
  4.6020476e-05   1.7069004e-04
 -1.0308986e-04   1.8803822e-04
  5.9922843e-04   2.2677833e-04
 -1.5316682e-05   1.9590287e-04
  4.2364359e-04   1.1435796e-04
 -6.4050825e-04   6.7691653e-05
  4.5411204e-04   2.7786629e-04
 -1.1872907e-05   1.1094084e-04
  4.2531337e-04   2.6034168e-04
  5.2976055e-05   2.1463694e-04
 -1.2077762e-04   2.6010445e-04
 -2.0142550e-04   1.3331772e-04
  4.3314776e-05   1.3842035e-04
  4.4536064e-04   1.5802436e-04
  7.2948796e-01   1.0219948e-04
  5.0722373e-01   2.7555210e-04
  8.8288146e-01   9.1914684e-05
 -4.6003271e-02   1.0565422e-04
 -3.2665077e-01   6.0842900e-05
  1.5847718e-02   2.0607794e-04
 -6.9957423e-05   2.5040944e-04
  1.3428703e-03   2.0108736e-04
 -1.1381583e-01   2.3129967e-04
 -5.4700878e-02   4.0593767e-04
 -4.7898266e-01   2.1388034e-04
  1.9229835e-04   1.9216380e-04
  6.2909821e-04   2.1833346e-04
 -1.2218577e-01   2.2052271e-04
 -3.6289336e-03   1.9398124e-04
  3.1185648e-01   1.8232834e-04
 -2.2397997e-04   1.2567086e-04
  1.0746063e-04   2.0250095e-04
  6.9165282e-04   9.5522904e-05
  6.3200087e-06   1.0101342e-04
 -4.6965476e-02   4.8028579e-04
 -7.3898077e-04   2.7538693e-04
  7.7890482e-04   3.3824437e-04
  2.6430620e-04   2.9212452e-04
 -2.5362711e-04   1.1838721e-04
 -7.4653875e-04   4.1745114e-04
  5.3202675e-04   3.0073398e-04
 -1.1386557e-04   1.6541497e-04
 -2.9388629e-04   1.3231661e-04
 -2.4742982e-04   1.2611570e-04
  3.3107139e-02   1.6519013e-04
 -8.4396452e-04   2.6385635e-04
  1.8878788e-02   2.6087958e-04
  2.7042180e-02   1.1693453e-04
 -6.1131593e-02   3.7600467e-04
 -7.1281679e-03   7.8257952e-05
 -1.5374123e-04   2.1571998e-04
  3.2655176e-04   1.2297879e-04
  1.8266669e-02   2.7884162e-04
  7.7841997e-02   1.3080199e-04
  1.5250313e-01   2.0232929e-04
  4.0685444e-04   1.2615268e-04
  6.8430998e-04   4.1165561e-04
  1.0363846e-02   2.2058985e-04
  6.4409553e-04   1.0637778e-04
  6.1204762e-04   1.4875196e-04
 -1.2881230e-04   1.4299764e-04
 -4.6230391e-05   1.3017778e-04
  1.3140704e-02   1.4413332e-04
  2.2069402e-01   1.4864031e-04
  6.3434435e-04   2.2678875e-04
  1.0968222e-04   1.2015789e-04
 -1.5570899e-03   1.9760089e-04
  9.2938673e-05   2.9464715e-04
  1.4467118e-04   2.8107557e-04
 -8.2442467e-04   8.6610933e-05
 -3.5639512e-04   1.1142502e-04
  5.2662050e-05   1.7227954e-04
 -1.7055005e-04   4.5723300e-05
  1.4411149e-04   2.3302097e-04
  2.8479140e-04   1.5555977e-04
  1.7624938e-04   1.7554151e-04
 -7.8888965e-04   2.1189121e-04
  4.0947442e-04   2.7446795e-04
 -1.8543199e-04   2.9904273e-04
 -6.8478525e-04   2.7350633e-04
  1.8056261e-04   2.4996247e-04
  2.1562542e-07   2.3480649e-04
  4.3815203e-04   1.7555461e-04
 -1.4246430e-03   2.6000265e-04
 -7.6510921e-02   2.6273367e-04
 -1.8858226e-04   1.8663658e-04
  1.2438827e-04   2.2099348e-04
  1.8128398e-05   1.6389822e-04
  2.3038898e-04   1.8767892e-04
 -6.5159996e-04   3.4925801e-04
  3.7390043e-04   1.5722426e-04
 -1.4410331e-04   2.6970377e-04
  1.0379506e-04   1.1104253e-04
 -6.2152594e-02   3.2951162e-04
  7.7874155e-04   1.0128682e-04
  6.4475782e-05   2.1961206e-04
  9.6189813e-04   9.2475500e-05
 -6.2200177e-04   8.8812965e-05
 -4.2903624e-04   1.5468276e-04
  2.1267602e-04   1.3181978e-04
 -5.8980868e-04   1.9482241e-04
  4.0961176e-04   2.9906645e-04
  7.7662081e-04   2.0361730e-04
 -1.1536087e-04   1.7587622e-04
  3.7120079e-04   1.1905619e-04
 -1.5338841e-03   8.1562881e-05
  2.9556561e-04   2.2805709e-04
  1.0811054e-03   3.2746224e-04
 -1.9221744e-04   1.7937005e-04
  3.7074083e-04   2.5379282e-04
  3.2527794e-05   1.5570405e-04
  1.1475895e-04   1.1446854e-04
  1.1442569e-03   2.9555059e-04
 -4.4635479e-05   1.6234189e-04
  6.8700348e-04   3.8377388e-04
 -4.4690129e-05   2.5767536e-04
 -5.9105904e-04   1.6795988e-04
  5.7640049e-04   9.4924362e-05
  2.2636662e-04   1.8271880e-04
  1.9390637e-04   3.1575581e-04
 -3.2535897e-04   3.4019534e-04
 -7.1700284e-04   2.1940599e-04
 -6.5177610e-06   1.7567350e-04
 -8.7745371e-04   2.6719694e-04
  2.1178537e-04   1.4260477e-04
 -1.6985276e-05   1.7136392e-04
  8.8492139e-05   2.1200701e-04
 -5.9447539e-06   3.0137072e-04
 -7.7223300e-04   1.7330698e-04
 -9.4909285e-04   2.8978608e-04
 -2.1496849e-04   3.8534618e-04
  6.8919739e-04   1.5945244e-04
  1.9427153e-04   1.7118567e-04
 -3.5964287e-04   3.4375605e-04
 -8.4146904e-04   1.3737235e-04
  4.8946380e-04   1.7021481e-04
  6.0078641e-04   2.0172623e-04
  8.5616711e-04   3.0170626e-04
  3.2147922e-04   2.9762794e-04
  1.1930548e-04   1.9481781e-04
 -3.9073045e-04   2.1740499e-04
  2.5770775e-04   1.5689890e-04
 -2.9775844e-04   1.9009900e-04
  7.1510416e-04   2.1113813e-04
 -1.6348102e-04   3.3504723e-04
  6.0107035e-04   9.1170637e-05
 -5.3111500e-05   3.1212912e-04
  1.8748800e-04   2.2654183e-04
  4.2512178e-04   2.0842066e-04
 -1.7584187e-04   2.2596537e-04
  3.5593714e-04   4.5978045e-04
  1.7986281e-04   1.8349577e-04
  8.7540328e-05   2.2056852e-04
  4.0265364e-05   1.5468647e-04
 -2.0356372e-04   3.5169104e-04
  1.4514122e-03   2.2163719e-04
 -6.2170590e-04   1.5059681e-04
 -6.0736295e-04   2.5201440e-04
 -1.0830282e-04   1.1880989e-04
  7.6243821e-05   1.1536136e-04
 -6.3545554e-04   8.7114873e-05
  2.9779950e-04   1.1716173e-04
  5.4628181e-04   2.2943073e-04
 -4.5379210e-04   2.1599792e-04
  4.2093772e-04   1.0664987e-04
 -1.1015060e-04   1.9660838e-04
 -1.9358577e-03   3.7793047e-04
 -8.2045887e-04   4.0969037e-04
  5.7914242e-04   2.2872268e-04
 -5.1813852e-04   1.6435747e-04
 -3.7571060e-04   1.6788494e-04
  8.2191348e-04   1.7803993e-04
  7.5063721e-04   2.7400028e-04
 -2.0918217e-06   2.4996855e-04
  1.3954577e-03   2.1264823e-04
 -1.5679190e-04   1.5749619e-04
  3.4510071e-04   2.6711542e-04
  3.8008392e-04   3.0529982e-04
 -5.5050990e-05   2.3452063e-04
 -2.8717777e-04   1.4401320e-04
  5.9893791e-04   2.1525177e-04
 -5.5483702e-06   1.2754145e-04
  2.3838892e-04   2.0648734e-04
 -1.1766484e-03   1.7253878e-04
 -3.7376760e-04   2.5504446e-04
 -4.4819590e-04   2.2797112e-04
 -5.9914158e-04   1.7762672e-04
 -1.0212427e-03   2.1908761e-04
 -1.3009278e-04   1.8555061e-04
 -2.0291001e-04   2.8350117e-04
 -1.2121703e-03   2.4507567e-04
  3.4302325e-04   2.2311807e-04
  3.1307418e-04   2.3059174e-04
  3.2828946e-04   4.6548370e-04
  5.0250530e-02   1.4228553e-04
 -8.7538024e-04   1.4163784e-04
  4.2980360e-03   2.0153998e-04
  1.2089353e-04   2.1306955e-04
 -4.4636928e-02   3.8680769e-04
  3.1015795e-04   1.9618757e-04
 -3.5659614e-04   2.4596657e-04
 -3.2393893e-04   1.3337980e-04
  7.8599945e-02   1.8292859e-04
  1.7850719e-01   2.1355439e-04
  6.5125808e-02   1.7009463e-04
 -7.7165469e-06   1.0859892e-04
 -7.0378708e-04   4.2359225e-04
  5.4737865e-03   1.7179467e-04
  4.1197424e-04   1.9786552e-04
 -1.3761640e-04   1.8426673e-04
 -4.4101808e-04   1.2317632e-04
 -6.2537217e-04   2.1913330e-04
  1.1318081e-02   1.8771096e-04
  1.7044646e-01   1.6573156e-04
  7.3796262e-05   2.0344580e-04
  6.9686932e-05   2.8169280e-04
 -1.3512968e-04   2.7544700e-04
  1.1981291e-03   3.4258919e-04
  1.2106845e-03   4.9454765e-04
 -1.4225478e-05   1.7289471e-04
  1.1173595e-03   2.9058408e-04
  1.4632006e-04   2.8900418e-04
 -4.4322245e-05   2.5504164e-04
  1.9478006e-03   1.8065673e-04
  3.1953931e-01   1.1099627e-04
 -4.2800394e-01   1.4658230e-04
  8.5496521e-01   5.2482388e-05
 -1.5619361e+00   5.3926989e-05
  7.9591149e-01   2.3973031e-05
  8.0145895e-01   2.2465638e-04
 -8.3929670e-05   1.9159874e-04
 -5.8338399e-05   4.9964251e-04
 -2.2668643e-02   1.7345036e-04
  9.0223228e-05   1.5850205e-04
 -4.2075836e-04   1.1065631e-04
 -2.5986473e-04   2.2078743e-04
 -1.1900713e-05   1.4062444e-04
  5.6590319e-02   2.0154349e-04
  7.5407505e-02   1.6608092e-04
  4.6761196e-02   1.4219827e-04
 -1.4903682e-03   2.7845829e-04
  1.2704082e-04   1.4118051e-04
 -4.9081340e-05   1.1715003e-04
  1.8183519e-04   5.0327937e-05
 -5.4619950e-01   2.9451092e-04
 -3.9057605e-04   1.5013601e-04
 -2.1300753e-05   9.9996527e-05
  9.8630739e-04   6.8529524e-05
 -1.6507463e-03   1.7670525e-04
 -3.6966909e-02   3.1226038e-04
  1.2799119e-05   3.2049551e-04
  1.0844227e-03   1.3188964e-04
  3.3955351e-02   6.2716816e-04
 -2.6017511e-02   1.0037699e-03
 -7.7804863e-05   9.6428979e-05
 -3.2344167e-04   1.7360448e-04
 -5.6111533e-04   2.2663939e-04
  5.8149802e-05   2.1817051e-04
 -1.5061670e-03   1.5301432e-04
 -7.3654468e-05   1.5602018e-04
  3.9418996e-05   1.7674253e-04
  1.2010310e-04   1.5900710e-04
  1.2644504e-03   3.9797109e-05
 -3.6660535e-04   2.2744438e-04
  5.6183623e-04   1.0703108e-04
 -5.9773662e-05   1.4847990e-04
 -1.8197877e-04   1.2794227e-04
 -6.1224717e-05   1.3900039e-04
 -2.5481853e-04   1.4757027e-04
 -1.1809341e-04   1.1182651e-04
 -7.3360541e-04   2.0233679e-04
  2.0068293e-04   2.5176897e-04
  2.0146329e-04   2.6227545e-04
  4.7179798e-05   4.3700595e-04
  7.3134288e-05   1.9750556e-04
 -3.2698966e-04   1.3484590e-04
 -3.5619680e-05   1.8245647e-04
  7.2789821e-04   7.0897389e-05
  3.9730698e-04   1.8772433e-04
  2.3913156e-04   4.2018201e-04
 -2.2919754e-04   1.8564510e-04
  9.9234306e-04   1.7684689e-04
 -1.4601482e-04   1.2570723e-04
 -5.6111428e-04   2.7504208e-04
  1.3506669e-04   2.8105651e-04
 -5.9976714e-04   2.2150562e-04
  1.1646278e-04   2.3819008e-04
  1.6112380e-04   1.5247543e-04
  5.5863720e-04   1.1669970e-04
  1.1374101e-05   1.8109511e-04
 -8.4651329e-05   1.9575444e-04
 -5.0671177e-04   1.0533594e-04
 -4.5777537e-04   1.6812104e-04
 -4.9291045e-04   2.6749939e-04
  5.6363957e-04   2.7329868e-04
 -5.5178534e-04   1.3824974e-04
  8.8065391e-04   1.1270670e-04
 -8.6100132e-04   2.1743051e-04
  5.7936367e-04   5.1728741e-04
  1.0626273e-04   9.7381220e-05
 -6.3251192e-04   1.4788198e-04
 -2.6711123e-04   5.9625610e-05
  1.4299106e-04   2.6194626e-04
 -1.6659139e-04   3.1334776e-04
  6.6185871e-06   1.9356755e-04
 -4.3201857e-04   4.4047105e-04
 -6.6856976e-04   2.5184487e-04
 -7.1539218e-04   3.2016620e-04
 -1.5481803e-04   2.8952572e-04
 -2.7128909e-04   2.0933336e-04
  5.4661388e-04   1.2412189e-04
  5.8096128e-05   1.5138990e-04
  4.1540482e-04   2.2859281e-04
 -1.2899205e-04   4.3187645e-04
 -1.0830067e-04   1.1575173e-04
  1.2463341e-04   2.8025711e-04
  4.7354271e-05   1.3342893e-04
 -1.0179856e-01   8.1248705e-05
 -1.9375944e-04   1.8842894e-04
 -1.1925607e-04   1.7434267e-04
 -8.1347878e-04   1.7015415e-04
 -2.5953548e-05   1.7129711e-04
  8.2363396e-05   2.5293921e-04
  3.7349580e-04   3.3153687e-04
 -4.3337123e-04   2.7276255e-04
  2.9802090e-04   1.6316478e-04
  3.4946389e-04   2.9342179e-04
 -2.2557979e-04   2.6489160e-04
  2.3937962e-04   1.7852733e-04
 -1.1759302e-04   2.5004617e-04
 -5.5259682e-04   4.3217451e-04
 -5.1744584e-05   2.2281187e-04
  4.1889536e-05   1.0704988e-04
 -1.3048910e-04   2.7513778e-04
  2.1430690e-04   2.1264987e-04
  4.7269878e-05   2.3689368e-04
 -2.4561134e-05   1.9307413e-04
 -4.8899837e-04   1.7562635e-04
  1.6177447e-04   1.3879678e-04
 -3.3960347e-05   1.5491691e-04
  4.7145667e-04   2.5371267e-04
 -3.1544702e-04   3.3846690e-04
  1.5335847e-06   1.9007923e-04
 -1.0327278e-03   2.5783305e-04
 -3.6860249e-04   1.9848811e-04
  3.5523449e-04   7.8478610e-05
  3.6417547e-04   1.4675122e-04
 -3.8339646e-04   2.3132577e-04
  3.3782554e-04   1.9235178e-04
 -6.2653540e-05   7.9061705e-05
  6.5794715e-04   2.3856167e-04
  7.2469207e-04   2.5336223e-04
 -5.3165475e-04   2.5225402e-04
 -3.3985442e-04   1.8860275e-04
  2.2515963e-04   1.7369846e-04
  1.7707668e-04   2.5696514e-04
 -6.9454743e-04   2.1430435e-04
  2.7025430e-04   1.3145337e-04
 -8.9115740e-05   2.3513281e-04
  2.7983074e-04   3.4030303e-04
  1.4706024e-04   2.3445199e-04
 -1.3171136e-04   1.6618088e-04
  3.3893349e-04   3.5785965e-04
  5.7150937e-05   1.6202357e-04
  2.9145912e-04   1.5667645e-04
  7.0608650e-05   2.3127937e-04
  2.4553062e-04   6.7637397e-05
 -7.4454746e-04   2.1464206e-04
 -1.1593961e-03   2.7292513e-04
  1.1046687e-05   1.9531589e-04
 -2.6678108e-04   2.1452384e-04
  3.0959497e-04   2.8791587e-04
 -7.3156298e-06   1.7450989e-04
  7.8064068e-06   2.2464112e-04
 -8.8650778e-02   2.3057681e-04
  7.0633296e-06   4.0675112e-04
 -3.6027208e-02   5.4341792e-05
 -9.4692506e-02   4.4898770e-05
  1.1219563e-01   2.7723439e-04
  4.3169737e-02   1.6591298e-04
  5.3971045e-04   3.8348659e-04
  2.5977520e-04   1.6143695e-04
 -5.8588468e-02   2.5105636e-04
 -1.1715674e-01   8.3128616e-05
 -1.4979841e-01   1.6993561e-04
 -1.3619724e-03   2.6911788e-04
 -1.3635119e-05   1.0695387e-04
 -3.0713024e-02   5.6198725e-05
 -2.2120513e-03   1.3329691e-04
 -3.5956357e-02   1.4193027e-04
  1.1569873e-04   2.6570293e-04
 -2.1696690e-04   1.7091336e-04
 -6.4386256e-02   2.7618039e-04
 -2.6369518e-01   2.2471324e-04
 -6.5774672e-02   1.4047333e-04
  2.7142515e-04   2.3775398e-04
 -9.6464169e-04   2.5793907e-04
 -2.5735444e-03   1.8477699e-04
 -2.9056794e-03   5.8634457e-04
  6.2916410e-04   1.5338568e-04
 -3.9676801e-04   2.2895240e-04
  3.9240532e-04   1.3304582e-04
  5.9924172e-05   1.9011155e-04
 -8.4592414e-04   2.2504899e-04
 -1.0595412e-04   9.3071860e-05
  1.1452394e-04   2.1419956e-04
  3.1960916e-04   4.2099401e-04
  2.6180159e-04   1.0434369e-04
  2.1611102e-04   2.0979930e-04
  4.9631594e-04   1.8565686e-04
  1.3061032e-04   4.7652348e-04
 -2.2516889e-04   1.1743010e-04
 -5.5505294e-05   2.1293128e-04
  9.7368720e-05   1.6183367e-04
  1.1554715e-04   2.2612313e-04
  3.0175479e-05   1.6192516e-04
  3.4541299e-04   2.5106085e-04
 -4.7515954e-05   2.3280006e-04
  4.4760382e-05   2.1219763e-04
 -3.9552546e-05   1.2831549e-04
 -3.5060887e-04   1.7974772e-04
 -2.5412350e-04   1.9381834e-04
 -4.1406899e-04   2.9831877e-04
 -1.1437893e-05   2.0956287e-04
 -4.5170667e-04   1.3723983e-04
 -1.1728999e-04   1.6301995e-04
  4.6678350e-04   2.4033721e-04
  2.3658304e-04   1.4933669e-04
 -2.4144226e-04   2.0432023e-04
  3.6966374e-06   1.3698054e-04
  2.4618521e-05   2.0813337e-04
  1.9377025e-04   1.7785419e-04
  1.5320411e-04   1.3335222e-04
  4.8754713e-04   1.8795441e-04
  4.5043748e-04   1.3996827e-04
  3.8206924e-04   2.3870791e-04
  1.9871973e-04   2.1169618e-04
  1.1992040e-04   2.8118488e-04
 -7.5499556e-04   2.2772202e-04
  2.0092074e-04   1.2059052e-04
  2.0555388e-05   1.9245058e-04
 -1.5909874e-05   2.8905019e-04
  1.3165209e-04   2.3042179e-04
  7.5956224e-04   2.9465751e-04
  3.5092580e-05   3.0533783e-04
  5.2201736e-04   1.5036220e-04
 -2.7046571e-04   3.0503570e-04
  3.8128704e-04   1.2946034e-04
  1.4561112e-05   8.8147666e-05
 -1.0783207e-05   3.7869113e-04
 -3.1614272e-04   1.5245644e-04
 -2.7885428e-05   3.4870941e-04
  8.2805280e-05   1.8667176e-04
 -8.2350831e-04   2.6982714e-04
  6.8893941e-04   1.4988668e-04
 -1.2000452e-04   2.8191708e-04
  3.7298704e-04   2.3964715e-04
 -6.8064610e-04   3.0993475e-04
 -4.4425204e-04   1.0024464e-04
  5.0570164e-04   2.5870383e-04
  1.1242401e-03   4.0343328e-04
  2.9352324e-05   1.0737369e-04
 -2.4135066e-04   1.2411541e-04
  5.3171394e-04   2.9493705e-04
 -1.0427850e-03   2.2538830e-04
 -5.5658660e-04   1.1440709e-04
  2.1851617e-04   1.6588211e-04
  5.8581460e-05   9.4685784e-05
 -3.5848306e-04   1.7318115e-04
 -4.2073205e-04   1.4969351e-04
  2.6895857e-04   1.2626106e-04
  6.0934242e-04   3.8363936e-04
 -2.7399548e-04   1.5381095e-04
  8.1487972e-04   1.4732401e-04
  7.6429511e-05   1.6048933e-04
 -1.0364508e-03   3.8891929e-04
 -4.5780424e-05   2.2143027e-04
 -4.3363738e-04   1.9154443e-04
  2.9182376e-04   2.3522999e-04
 -4.5146231e-04   3.5397522e-04
 -4.5995120e-04   1.5500293e-04
  2.1248008e-04   2.2098857e-04
 -5.5920694e-04   2.2490215e-04
  1.8044890e-04   2.5106405e-04
  2.1834107e-04   2.0131811e-04
  3.3952494e-04   2.0839825e-04
  4.7394985e-04   3.7842221e-04
 -6.4966932e-04   2.5491955e-04
  8.0584711e-04   4.8349495e-05
 -7.5289101e-04   1.7722927e-04
  2.1151523e-04   2.4795849e-04
 -2.3078889e-04   2.2483098e-04
 -2.3233164e-05   1.1181820e-04
 -5.9519316e-05   3.2677763e-04
 -4.2294681e-01   5.1407780e-05
 -5.8894564e-04   2.3858152e-04
 -9.1339409e-02   1.4654151e-04
 -8.6957604e-02   7.6822660e-05
  3.8434473e-01   2.3250215e-05
  3.7577812e-02   1.3383132e-04
  2.5452944e-04   1.2848184e-04
  9.0030045e-04   1.3215504e-04
 -1.3304990e-02   5.6532132e-05
 -7.6826490e-02   1.9316183e-04
 -2.1530344e-01   8.7000335e-05
 -1.6589367e-05   4.1285006e-04
 -1.0180317e-03   2.6528421e-04
 -1.0831041e-01   1.3302795e-04
 -2.5502515e-03   4.0295048e-04
 -1.0081340e-01   1.3716599e-04
 -2.7793512e-04   2.8014617e-04
 -2.2500496e-04   1.4476952e-04
 -1.7161423e-01   2.3231280e-04
 -3.9129907e-01   3.9184143e-04
 -9.6012431e-04   2.4893199e-04
  2.1848893e-04   8.1812061e-05
 -6.2018720e-04   2.2320295e-04
 -5.4071143e-02   3.8761558e-04
 -1.7534235e-02   5.7647267e-04
  6.9819842e-05   1.9587768e-04
 -1.3613338e-03   3.1080964e-04
 -5.4504356e-04   8.9554502e-05
  3.9797925e-04   2.1301385e-04
 -7.4544543e-04   1.8052731e-04
  8.0427330e-05   1.8712258e-04
  6.8559493e-05   2.2228326e-04
  6.6855730e-04   1.0774685e-04
 -1.3082683e-04   1.4447559e-04
 -1.1296833e-04   3.0789679e-04
  1.4802201e-04   2.6258751e-04
  2.2235961e-04   2.7695103e-04
 -4.4325198e-04   1.9155139e-04
 -2.4151172e-05   3.1455766e-04
  2.0052544e-04   2.1908550e-04
 -2.5940294e-04   2.4652432e-04
  6.2867381e-05   4.6281598e-04
  2.3065105e-03   2.8765012e-04
 -1.1668375e-04   3.0468716e-04
  2.6498389e-04   2.2003624e-04
  4.2018606e-04   6.1109735e-05
 -1.1706931e-03   1.4350943e-04
  3.4107527e-04   2.1062657e-04
  7.0349628e-04   2.6537935e-04
 -1.8646498e-04   6.6880399e-05
  3.8420875e-04   2.2529968e-04
  1.2465157e-04   2.6099427e-04
  6.8855079e-05   2.2030390e-04
 -1.0249357e-04   2.7873323e-04
  2.2417413e-05   1.5326009e-04
 -1.8687693e-04   2.1396636e-04
  3.1238017e-04   3.0496786e-04
  6.5575703e-04   1.7607681e-04
 -7.9124951e-04   1.5268481e-04
 -2.6756848e-04   1.7890564e-04
 -5.6601691e-01   2.0512512e-05
  1.0030085e+00   4.8193499e-05
 -5.4361314e-01   6.7972222e-05
  8.4232986e-01   4.7545542e-05
 -1.1281850e+00   4.2870110e-05
  2.4636033e-01   9.6050884e-05
 -1.3863210e-03   3.3929787e-04
 -2.1928508e-05   3.9852175e-04
 -1.1674304e-01   1.5126669e-04
 -2.4560767e-01   1.8830971e-04
 -1.7898373e-01   1.2805875e-04
  2.5033767e-03   3.2496935e-04
  1.3210853e-04   2.0778082e-04
 -1.1252646e-01   9.9317025e-05
 -2.0546746e-02   1.5494214e-04
 -2.5869359e-04   1.1049936e-04
 -1.0601932e-03   1.1154557e-04
 -2.3100288e-03   2.4286051e-04
 -4.1218646e-02   4.6786015e-05
 -2.1036950e-01   1.8919169e-04
 -2.2172718e-01   1.8299080e-04
 -1.8411253e-04   1.6109447e-04
 -4.3472633e-04   2.8229409e-04
 -7.0798224e-01   1.8380303e-04
 -2.9674265e-01   2.4905364e-04
  3.7855688e-02   2.8483252e-04
 -2.1072416e-04   3.5983496e-04
  8.5201795e-04   3.3768101e-04
 -7.4852839e-02   4.0795645e-04
 -2.3904727e-04   2.3361795e-04
  5.9015965e-01   4.9523893e-05
 -1.2617743e-01   9.0070440e-05
  4.8001540e-01   9.8953606e-05
 -6.0049152e-01   5.8933387e-05
  3.7894443e-01   8.0029124e-05
  1.2736212e-03   1.4001087e-04
  1.8220219e-04   9.5447111e-05
 -9.3647308e-04   2.7811280e-04
  4.4697213e-01   1.9321742e-04
  4.0908191e-01   1.7522935e-04
  3.2203403e-01   1.4511219e-04
  1.0970313e-04   1.4576805e-04
  6.5838693e-05   1.2589752e-04
  1.0126056e-04   7.1322524e-05
  2.5629875e-01   3.0967648e-04
  1.3955034e-01   2.4131156e-04
  1.3724585e-04   3.4374517e-04
  2.2779443e-04   2.4903775e-04
  2.8716841e-01   2.6331207e-04
  4.9761125e-01   2.0209368e-04
 -2.3968475e-02   4.9439189e-04
 -3.8118818e-04   2.9648215e-04
 -6.1935897e-04   1.3997822e-04
  3.0367486e-03   1.9723113e-04
 -8.3114894e-05   1.3398504e-04
  3.2552466e-04   1.6551856e-04
  7.1420253e-04   2.6700177e-04
  2.3815934e-04   2.4937015e-04
  7.8753021e-04   2.2016148e-04
 -1.8093894e-04   1.8037944e-04
 -3.8207228e-05   1.6665747e-04
 -8.1734048e-05   1.0417475e-04
  7.6199137e-04   2.4470472e-04
 -2.2804065e-04   2.5466928e-04
 -9.3016606e-05   3.8577302e-04
 -6.7370347e-05   2.8351267e-04
  4.2974579e-04   1.7394558e-04
 -3.4039622e-04   8.8585955e-05
 -1.2352711e-03   1.6428834e-04
  1.6484287e-04   2.4450014e-04
 -1.9045282e-04   2.9160891e-04
  7.2712952e-04   1.0066047e-04
 -5.2111637e-04   3.4033178e-04
 -2.0113462e-04   1.9994314e-04
 -2.7476990e-05   2.0074811e-04
 -4.9299892e-05   2.3833156e-04
 -2.7405864e-04   8.1720653e-05
 -2.0543953e-04   2.2378554e-04
  1.6334356e-04   2.5034350e-04
 -2.5140517e-04   1.4177375e-04
  1.4627227e-04   1.6033603e-04
 -5.8107183e-04   1.1617142e-04
  1.8625669e-06   1.5544432e-04
  7.9024263e-05   2.0385451e-04
  8.6512853e-04   2.2031848e-04
 -6.3663663e-04   1.9326911e-04
  2.9096822e-04   1.2832430e-04
  1.1986341e-04   2.8357079e-04
  3.5840776e-04   1.2662871e-04
  2.7966735e-04   2.3041890e-04
  5.0473004e-04   2.3028275e-04
  2.1130599e-04   1.1758503e-04
  5.1256042e-04   1.9411852e-04
  3.4094945e-04   1.7238843e-04
  3.9431133e-04   9.1236703e-05
  1.0494754e-04   5.4273482e-05
 -2.0735864e-04   1.2110153e-04
 -1.8280305e-04   4.2643663e-04
 -3.0786778e-05   1.3635974e-04
  1.9864803e-03   1.9470266e-04
  2.0366840e-04   2.3635835e-04
  3.6692920e-05   1.8341356e-04
 -4.3509225e-04   4.1526096e-04
  2.8708263e-04   1.7610492e-04
 -6.7716034e-04   1.2123722e-04
 -2.6964335e-04   1.9468654e-04
  4.9322414e-05   2.3156524e-04
  4.1662896e-04   2.5050060e-04
 -6.3175440e-04   1.4782655e-04
  2.2087572e-04   1.8060910e-04
 -2.9590598e-04   1.4510789e-04
 -8.5218933e-05   1.7997125e-04
  1.3605479e-04   3.7031306e-04
 -1.1135945e-03   2.1425128e-04
  1.5625179e-04   4.3242858e-04
  2.3435568e-04   1.0795324e-04
 -2.2221494e-03   9.5069707e-05
 -9.6853393e-05   1.6303448e-04
 -3.4034604e-04   1.6044966e-04
 -5.4658117e-04   4.2759633e-04
  3.3300673e-04   1.2655515e-04
  2.9870731e-04   1.8258484e-04
  5.6246736e-06   1.6188456e-04
 -1.7221495e-04   1.2503349e-04
  1.3402841e-04   1.0181533e-04
 -9.7735836e-05   3.2520242e-04
  1.9538976e-04   2.3165104e-04
  1.3760549e-03   1.1631623e-04
 -4.4219563e-04   2.7446542e-04
  1.1411816e-03   1.8066826e-04
  4.0114427e-04   1.4081316e-04
  4.9082702e-04   2.6752616e-04
 -2.7432048e-04   2.7034321e-04
 -5.8554282e-04   1.5522497e-04
 -6.5851741e-04   9.0643211e-05
  1.1612022e-04   1.4197436e-04
 -1.3179681e-03   1.2312019e-04
 -1.4128487e-04   2.0292219e-04
  8.1993511e-04   1.5490291e-04
  6.9834240e-04   8.1534075e-05
 -5.8600592e-04   1.9704997e-04
  1.4219561e-04   2.0366990e-04
  2.8501835e-04   1.5320601e-04
 -9.7505537e-05   8.7109889e-05
 -2.0660092e-04   1.6139646e-04
  8.9147658e-04   9.8597309e-05
  9.4705887e-05   1.4942947e-04
  4.1495319e-04   1.3337753e-04
 -1.8998413e-04   1.9882005e-04
  4.9848004e-05   2.9691524e-04
  4.9568340e-04   1.1939424e-04
  3.2582579e-04   3.5277783e-04
  4.9917586e-04   2.5543533e-04
 -2.8084598e-05   2.4777246e-04
 -5.1980570e-04   3.3401710e-04
  5.3012882e-05   2.5443069e-04
 -1.7182782e-04   2.4433809e-04
  1.1284840e+00   1.2932926e-04
  3.7071211e-04   1.6685862e-04
  2.2769671e-04   2.7306785e-04
  3.6202441e-04   2.0286748e-04
  8.7215922e-05   8.1494043e-05
 -2.2196643e-04   7.7992547e-05
  3.5451233e-04   3.0801131e-04
  1.8808545e-01   3.0693594e-05
 -1.5356376e-04   2.2551735e-04
  3.7996459e-04   2.1359953e-04
 -4.4277500e-04   1.5933596e-04
  1.0447595e-03   1.7950946e-04
 -1.2458250e-03   3.8384993e-04
 -3.0625952e-04   1.3930547e-04
  1.6989768e-04   2.1713045e-04
 -4.6752393e-04   2.2328236e-04
 -1.2542829e-03   1.7754805e-04
  2.8894359e-04   1.4540166e-04
  3.0148336e-01   7.7506302e-05
 -2.7171886e-03   2.0455231e-04
  2.0973576e-04   1.6787607e-04
  5.6131271e-04   1.8009252e-04
 -8.1908518e-05   1.3734592e-04
  1.1940530e-04   2.0466989e-04
 -6.5056479e-04   2.4751137e-04
  4.2527405e-05   3.3160482e-04
 -8.6904143e-04   3.7994582e-04
  1.2134165e-04   3.9194792e-04
  1.9240769e-02   9.5344067e-06
  8.6127652e-04   1.8977582e-04